Program Version,EnergyPlus, Version 22.2.0-c249759bad, YMD=2023.02.05 16:28
1,5,Environment Title[],Latitude[deg],Longitude[deg],Time Zone[],Elevation[m]
2,8,Day of Simulation[],Month[],Day of Month[],DST Indicator[1=yes 0=no],Hour[],StartMinute[],EndMinute[],DayType
3,5,Cumulative Day of Simulation[],Month[],Day of Month[],DST Indicator[1=yes 0=no],DayType  ! When Daily Meters Requested
4,2,Cumulative Days of Simulation[],Month[]  ! When Monthly Meters Requested
5,1,Cumulative Days of Simulation[] ! When Run Period Meters Requested
6,1,Calendar Year of Simulation[] ! When Annual Meters Requested
61,1,Electricity:Facility [J] !Hourly
1544,1,ElectricityNet:Facility [J] !Hourly
End of Data Dictionary
1,RUN PERIOD 1,  27.97, -82.53,  -5.00,   6.00
2,1, 1, 1, 0, 1, 0.00,60.00,Sunday
61,16746986.621765712
1544,16746986.621765712
2,1, 1, 1, 0, 2, 0.00,60.00,Sunday
61,16746986.621765712
1544,16746986.621765712
2,1, 1, 1, 0, 3, 0.00,60.00,Sunday
61,16746986.621765712
1544,16746986.621765712
2,1, 1, 1, 0, 4, 0.00,60.00,Sunday
61,16746986.621765712
1544,16746986.621765712
2,1, 1, 1, 0, 5, 0.00,60.00,Sunday
61,16746986.621765712
1544,16746986.621765712
2,1, 1, 1, 0, 6, 0.00,60.00,Sunday
61,18000996.92682142
1544,18000996.92682142
2,1, 1, 1, 0, 7, 0.00,60.00,Sunday
61,16746986.621765712
1544,16746986.621765712
2,1, 1, 1, 0, 8, 0.00,60.00,Sunday
61,12948806.621765712
1544,12948806.621765712
2,1, 1, 1, 0, 9, 0.00,60.00,Sunday
61,11049716.621765712
1544,11049716.621765712
2,1, 1, 1, 0,10, 0.00,60.00,Sunday
61,11049716.621765712
1544,11049716.621765712
2,1, 1, 1, 0,11, 0.00,60.00,Sunday
61,12303728.62480025
1544,12303728.62480025
2,1, 1, 1, 0,12, 0.00,60.00,Sunday
61,11049716.621765712
1544,11049716.621765712
2,1, 1, 1, 0,13, 0.00,60.00,Sunday
61,11049716.621765712
1544,11049716.621765712
2,1, 1, 1, 0,14, 0.00,60.00,Sunday
61,11049716.621765712
1544,11049716.621765712
2,1, 1, 1, 0,15, 0.00,60.00,Sunday
61,11049716.621765712
1544,11049716.621765712
2,1, 1, 1, 0,16, 0.00,60.00,Sunday
61,11049716.621765712
1544,11049716.621765712
2,1, 1, 1, 0,17, 0.00,60.00,Sunday
61,12303719.251512237
1544,12303719.251512237
2,1, 1, 1, 0,18, 0.00,60.00,Sunday
61,12948806.621765712
1544,12948806.621765712
2,1, 1, 1, 0,19, 0.00,60.00,Sunday
61,16746986.621765712
1544,16746986.621765712
2,1, 1, 1, 0,20, 0.00,60.00,Sunday
61,16746986.621765712
1544,16746986.621765712
2,1, 1, 1, 0,21, 0.00,60.00,Sunday
61,16746986.621765712
1544,16746986.621765712
2,1, 1, 1, 0,22, 0.00,60.00,Sunday
61,18000750.7376484
1544,18000750.7376484
2,1, 1, 1, 0,23, 0.00,60.00,Sunday
61,16746986.621765712
1544,16746986.621765712
2,1, 1, 1, 0,24, 0.00,60.00,Sunday
61,16746986.621765712
1544,16746986.621765712
2,2, 1, 2, 0, 1, 0.00,60.00,Monday
61,20490583.1172087
1544,20490583.1172087
2,2, 1, 2, 0, 2, 0.00,60.00,Monday
61,20490583.1172087
1544,20490583.1172087
2,2, 1, 2, 0, 3, 0.00,60.00,Monday
61,21744531.671835143
1544,21744531.671835143
2,2, 1, 2, 0, 4, 0.00,60.00,Monday
61,20490583.1172087
1544,20490583.1172087
2,2, 1, 2, 0, 5, 0.00,60.00,Monday
61,20490583.1172087
1544,20490583.1172087
2,2, 1, 2, 0, 6, 0.00,60.00,Monday
61,22294690.17370852
1544,22294690.17370852
2,2, 1, 2, 0, 7, 0.00,60.00,Monday
61,38439314.64654655
1544,38439314.64654654
2,2, 1, 2, 0, 8, 0.00,60.00,Monday
61,43777009.31444819
1544,43777009.31444819
2,2, 1, 2, 0, 9, 0.00,60.00,Monday
61,66669223.76963021
1544,66669223.76963022
2,2, 1, 2, 0,10, 0.00,60.00,Monday
61,68550060.51685305
1544,68550060.51685306
2,2, 1, 2, 0,11, 0.00,60.00,Monday
61,71997935.33851549
1544,71997935.33851549
2,2, 1, 2, 0,12, 0.00,60.00,Monday
61,72236161.00353797
1544,72236161.00353798
2,2, 1, 2, 0,13, 0.00,60.00,Monday
61,70718394.26564312
1544,70718394.26564313
2,2, 1, 2, 0,14, 0.00,60.00,Monday
61,74238421.49970235
1544,74238421.49970236
2,2, 1, 2, 0,15, 0.00,60.00,Monday
61,73153937.44317544
1544,73153937.44317545
2,2, 1, 2, 0,16, 0.00,60.00,Monday
61,73174319.64577931
1544,73174319.64577933
2,2, 1, 2, 0,17, 0.00,60.00,Monday
61,73893997.54755375
1544,73893997.54755376
2,2, 1, 2, 0,18, 0.00,60.00,Monday
61,60313872.843990155
1544,60313872.84399016
2,2, 1, 2, 0,19, 0.00,60.00,Monday
61,40286594.03769209
1544,40286594.037692085
2,2, 1, 2, 0,20, 0.00,60.00,Monday
61,39006697.28431066
1544,39006697.284310654
2,2, 1, 2, 0,21, 0.00,60.00,Monday
61,36671256.54906219
1544,36671256.54906219
2,2, 1, 2, 0,22, 0.00,60.00,Monday
61,35398483.171306714
1544,35398483.171306714
2,2, 1, 2, 0,23, 0.00,60.00,Monday
61,18551093.678265538
1544,18551093.678265534
2,2, 1, 2, 0,24, 0.00,60.00,Monday
61,18000737.752641857
1544,18000737.752641857
2,3, 1, 3, 0, 1, 0.00,60.00,Tuesday
61,20490583.1172087
1544,20490583.1172087
2,3, 1, 3, 0, 2, 0.00,60.00,Tuesday
61,20490583.1172087
1544,20490583.1172087
2,3, 1, 3, 0, 3, 0.00,60.00,Tuesday
61,20490583.1172087
1544,20490583.1172087
2,3, 1, 3, 0, 4, 0.00,60.00,Tuesday
61,20490583.1172087
1544,20490583.1172087
2,3, 1, 3, 0, 5, 0.00,60.00,Tuesday
61,20490583.1172087
1544,20490583.1172087
2,3, 1, 3, 0, 6, 0.00,60.00,Tuesday
61,23548410.281020015
1544,23548410.281020015
2,3, 1, 3, 0, 7, 0.00,60.00,Tuesday
61,40015473.09654133
1544,40015473.09654132
2,3, 1, 3, 0, 8, 0.00,60.00,Tuesday
61,42810307.42698495
1544,42810307.42698495
2,3, 1, 3, 0, 9, 0.00,60.00,Tuesday
61,65704937.76943134
1544,65704937.76943135
2,3, 1, 3, 0,10, 0.00,60.00,Tuesday
61,64952326.00963043
1544,64952326.00963044
2,3, 1, 3, 0,11, 0.00,60.00,Tuesday
61,65819313.25191869
1544,65819313.2519187
2,3, 1, 3, 0,12, 0.00,60.00,Tuesday
61,68567222.4654984
1544,68567222.46549842
2,3, 1, 3, 0,13, 0.00,60.00,Tuesday
61,64003726.30780673
1544,64003726.30780674
2,3, 1, 3, 0,14, 0.00,60.00,Tuesday
61,66852508.63711395
1544,66852508.637113966
2,3, 1, 3, 0,15, 0.00,60.00,Tuesday
61,63519097.905732565
1544,63519097.90573257
2,3, 1, 3, 0,16, 0.00,60.00,Tuesday
61,62390455.19780408
1544,62390455.19780409
2,3, 1, 3, 0,17, 0.00,60.00,Tuesday
61,62238496.75418516
1544,62238496.754185185
2,3, 1, 3, 0,18, 0.00,60.00,Tuesday
61,49883921.155020125
1544,49883921.15502012
2,3, 1, 3, 0,19, 0.00,60.00,Tuesday
61,40286994.690447494
1544,40286994.69044749
2,3, 1, 3, 0,20, 0.00,60.00,Tuesday
61,40273253.92662026
1544,40273253.92662025
2,3, 1, 3, 0,21, 0.00,60.00,Tuesday
61,35398483.17131406
1544,35398483.17131406
2,3, 1, 3, 0,22, 0.00,60.00,Tuesday
61,36658465.00475485
1544,36658465.00475485
2,3, 1, 3, 0,23, 0.00,60.00,Tuesday
61,18551093.678265538
1544,18551093.678265534
2,3, 1, 3, 0,24, 0.00,60.00,Tuesday
61,16746986.621765712
1544,16746986.621765712
2,4, 1, 4, 0, 1, 0.00,60.00,Wednesday
61,20490583.1172087
1544,20490583.1172087
2,4, 1, 4, 0, 2, 0.00,60.00,Wednesday
61,20490583.1172087
1544,20490583.1172087
2,4, 1, 4, 0, 3, 0.00,60.00,Wednesday
61,21744418.54050136
1544,21744418.540501364
2,4, 1, 4, 0, 4, 0.00,60.00,Wednesday
61,20490583.1172087
1544,20490583.1172087
2,4, 1, 4, 0, 5, 0.00,60.00,Wednesday
61,20490583.1172087
1544,20490583.1172087
2,4, 1, 4, 0, 6, 0.00,60.00,Wednesday
61,22294690.17370852
1544,22294690.17370852
2,4, 1, 4, 0, 7, 0.00,60.00,Wednesday
61,37370384.34712053
1544,37370384.34712053
2,4, 1, 4, 0, 8, 0.00,60.00,Wednesday
61,42414556.52638449
1544,42414556.52638448
2,4, 1, 4, 0, 9, 0.00,60.00,Wednesday
61,55233043.448164076
1544,55233043.448164076
2,4, 1, 4, 0,10, 0.00,60.00,Wednesday
61,56815916.88210969
1544,56815916.88210969
2,4, 1, 4, 0,11, 0.00,60.00,Wednesday
61,56071002.52469163
1544,56071002.52469163
2,4, 1, 4, 0,12, 0.00,60.00,Wednesday
61,59306758.07929291
1544,59306758.07929291
2,4, 1, 4, 0,13, 0.00,60.00,Wednesday
61,55471532.68135345
1544,55471532.68135345
2,4, 1, 4, 0,14, 0.00,60.00,Wednesday
61,62173009.91510402
1544,62173009.915104024
2,4, 1, 4, 0,15, 0.00,60.00,Wednesday
61,62175637.385563076
1544,62175637.38556309
2,4, 1, 4, 0,16, 0.00,60.00,Wednesday
61,63980156.60683535
1544,63980156.60683536
2,4, 1, 4, 0,17, 0.00,60.00,Wednesday
61,62721689.33883539
1544,62721689.3388354
2,4, 1, 4, 0,18, 0.00,60.00,Wednesday
61,50146555.9655776
1544,50146555.9655776
2,4, 1, 4, 0,19, 0.00,60.00,Wednesday
61,40286896.8581359
1544,40286896.8581359
2,4, 1, 4, 0,20, 0.00,60.00,Wednesday
61,39006697.28431066
1544,39006697.284310654
2,4, 1, 4, 0,21, 0.00,60.00,Wednesday
61,36671509.36517664
1544,36671509.36517664
2,4, 1, 4, 0,22, 0.00,60.00,Wednesday
61,35398483.171306714
1544,35398483.171306714
2,4, 1, 4, 0,23, 0.00,60.00,Wednesday
61,19804966.544697937
1544,19804966.544697933
2,4, 1, 4, 0,24, 0.00,60.00,Wednesday
61,16746986.621765712
1544,16746986.621765712
2,5, 1, 5, 0, 1, 0.00,60.00,Thursday
61,20490583.1172087
1544,20490583.1172087
2,5, 1, 5, 0, 2, 0.00,60.00,Thursday
61,20490583.1172087
1544,20490583.1172087
2,5, 1, 5, 0, 3, 0.00,60.00,Thursday
61,20490583.1172087
1544,20490583.1172087
2,5, 1, 5, 0, 4, 0.00,60.00,Thursday
61,20490583.1172087
1544,20490583.1172087
2,5, 1, 5, 0, 5, 0.00,60.00,Thursday
61,21744508.104039684
1544,21744508.10403968
2,5, 1, 5, 0, 6, 0.00,60.00,Thursday
61,22294690.17370852
1544,22294690.17370852
2,5, 1, 5, 0, 7, 0.00,60.00,Thursday
61,36774978.075640805
1544,36774978.075640805
2,5, 1, 5, 0, 8, 0.00,60.00,Thursday
61,41162278.90095005
1544,41162278.90095005
2,5, 1, 5, 0, 9, 0.00,60.00,Thursday
61,55545456.949155934
1544,55545456.949155934
2,5, 1, 5, 0,10, 0.00,60.00,Thursday
61,56455176.511172764
1544,56455176.511172764
2,5, 1, 5, 0,11, 0.00,60.00,Thursday
61,60329825.28973855
1544,60329825.28973855
2,5, 1, 5, 0,12, 0.00,60.00,Thursday
61,60670648.580507115
1544,60670648.58050712
2,5, 1, 5, 0,13, 0.00,60.00,Thursday
61,60400066.84760883
1544,60400066.847608835
2,5, 1, 5, 0,14, 0.00,60.00,Thursday
61,65621457.600728266
1544,65621457.60072827
2,5, 1, 5, 0,15, 0.00,60.00,Thursday
61,64321719.45566146
1544,64321719.45566147
2,5, 1, 5, 0,16, 0.00,60.00,Thursday
61,64274477.45711608
1544,64274477.4571161
2,5, 1, 5, 0,17, 0.00,60.00,Thursday
61,65153397.45384169
1544,65153397.4538417
2,5, 1, 5, 0,18, 0.00,60.00,Thursday
61,52240386.976701975
1544,52240386.976701975
2,5, 1, 5, 0,19, 0.00,60.00,Thursday
61,39006697.284315966
1544,39006697.28431596
2,5, 1, 5, 0,20, 0.00,60.00,Thursday
61,40273166.65038799
1544,40273166.65038798
2,5, 1, 5, 0,21, 0.00,60.00,Thursday
61,36671381.148807384
1544,36671381.148807384
2,5, 1, 5, 0,22, 0.00,60.00,Thursday
61,35398483.171306714
1544,35398483.171306714
2,5, 1, 5, 0,23, 0.00,60.00,Thursday
61,18551093.678265538
1544,18551093.678265534
2,5, 1, 5, 0,24, 0.00,60.00,Thursday
61,16746986.621765712
1544,16746986.621765712
2,6, 1, 6, 0, 1, 0.00,60.00,Friday
61,21744408.635339025
1544,21744408.635339025
2,6, 1, 6, 0, 2, 0.00,60.00,Friday
61,20490583.1172087
1544,20490583.1172087
2,6, 1, 6, 0, 3, 0.00,60.00,Friday
61,20490583.1172087
1544,20490583.1172087
2,6, 1, 6, 0, 4, 0.00,60.00,Friday
61,20490583.1172087
1544,20490583.1172087
2,6, 1, 6, 0, 5, 0.00,60.00,Friday
61,20490583.1172087
1544,20490583.1172087
2,6, 1, 6, 0, 6, 0.00,60.00,Friday
61,22294690.17370852
1544,22294690.17370852
2,6, 1, 6, 0, 7, 0.00,60.00,Friday
61,37703025.079952046
1544,37703025.079952046
2,6, 1, 6, 0, 8, 0.00,60.00,Friday
61,39475885.200273626
1544,39475885.200273626
2,6, 1, 6, 0, 9, 0.00,60.00,Friday
61,56577172.84865426
1544,56577172.84865427
2,6, 1, 6, 0,10, 0.00,60.00,Friday
61,59628250.06145608
1544,59628250.061456084
2,6, 1, 6, 0,11, 0.00,60.00,Friday
61,61337683.398637384
1544,61337683.3986374
2,6, 1, 6, 0,12, 0.00,60.00,Friday
61,65187324.38064379
1544,65187324.3806438
2,6, 1, 6, 0,13, 0.00,60.00,Friday
61,64228306.96501459
1544,64228306.9650146
2,6, 1, 6, 0,14, 0.00,60.00,Friday
61,68953979.83227655
1544,68953979.83227655
2,6, 1, 6, 0,15, 0.00,60.00,Friday
61,69478655.83878522
1544,69478655.83878523
2,6, 1, 6, 0,16, 0.00,60.00,Friday
61,70313568.06508726
1544,70313568.06508727
2,6, 1, 6, 0,17, 0.00,60.00,Friday
61,69953873.67835887
1544,69953873.67835887
2,6, 1, 6, 0,18, 0.00,60.00,Friday
61,57492279.460902676
1544,57492279.460902676
2,6, 1, 6, 0,19, 0.00,60.00,Friday
61,40286880.89442247
1544,40286880.894422464
2,6, 1, 6, 0,20, 0.00,60.00,Friday
61,40272881.03135052
1544,40272881.031350516
2,6, 1, 6, 0,21, 0.00,60.00,Friday
61,35398483.17131406
1544,35398483.17131406
2,6, 1, 6, 0,22, 0.00,60.00,Friday
61,36658510.67533888
1544,36658510.67533888
2,6, 1, 6, 0,23, 0.00,60.00,Friday
61,18551093.678265538
1544,18551093.678265534
2,6, 1, 6, 0,24, 0.00,60.00,Friday
61,16746986.621765712
1544,16746986.621765712
2,7, 1, 7, 0, 1, 0.00,60.00,Saturday
61,16746986.621765712
1544,16746986.621765712
2,7, 1, 7, 0, 2, 0.00,60.00,Saturday
61,16746986.621765712
1544,16746986.621765712
2,7, 1, 7, 0, 3, 0.00,60.00,Saturday
61,18000777.090610545
1544,18000777.090610545
2,7, 1, 7, 0, 4, 0.00,60.00,Saturday
61,16746986.621765712
1544,16746986.621765712
2,7, 1, 7, 0, 5, 0.00,60.00,Saturday
61,16746986.621765712
1544,16746986.621765712
2,7, 1, 7, 0, 6, 0.00,60.00,Saturday
61,16746986.621765712
1544,16746986.621765712
2,7, 1, 7, 0, 7, 0.00,60.00,Saturday
61,16746986.621765712
1544,16746986.621765712
2,7, 1, 7, 0, 8, 0.00,60.00,Saturday
61,12948806.621765712
1544,12948806.621765712
2,7, 1, 7, 0, 9, 0.00,60.00,Saturday
61,12303303.0848265
1544,12303303.0848265
2,7, 1, 7, 0,10, 0.00,60.00,Saturday
61,11049716.621765712
1544,11049716.621765712
2,7, 1, 7, 0,11, 0.00,60.00,Saturday
61,11049716.621765712
1544,11049716.621765712
2,7, 1, 7, 0,12, 0.00,60.00,Saturday
61,11049716.621765712
1544,11049716.621765712
2,7, 1, 7, 0,13, 0.00,60.00,Saturday
61,11049716.621765712
1544,11049716.621765712
2,7, 1, 7, 0,14, 0.00,60.00,Saturday
61,11049716.621765712
1544,11049716.621765712
2,7, 1, 7, 0,15, 0.00,60.00,Saturday
61,12303572.23752186
1544,12303572.23752186
2,7, 1, 7, 0,16, 0.00,60.00,Saturday
61,11049716.621765712
1544,11049716.621765712
2,7, 1, 7, 0,17, 0.00,60.00,Saturday
61,11049716.621765712
1544,11049716.621765712
2,7, 1, 7, 0,18, 0.00,60.00,Saturday
61,12948806.621765712
1544,12948806.621765712
2,7, 1, 7, 0,19, 0.00,60.00,Saturday
61,16746986.621765712
1544,16746986.621765712
2,7, 1, 7, 0,20, 0.00,60.00,Saturday
61,18000765.783530716
1544,18000765.783530716
2,7, 1, 7, 0,21, 0.00,60.00,Saturday
61,16746986.621765712
1544,16746986.621765712
2,7, 1, 7, 0,22, 0.00,60.00,Saturday
61,16746986.621765712
1544,16746986.621765712
2,7, 1, 7, 0,23, 0.00,60.00,Saturday
61,16746986.621765712
1544,16746986.621765712
2,7, 1, 7, 0,24, 0.00,60.00,Saturday
61,16746986.621765712
1544,16746986.621765712
2,8, 1, 8, 0, 1, 0.00,60.00,Sunday
61,18001048.20537963
1544,18001048.20537963
2,8, 1, 8, 0, 2, 0.00,60.00,Sunday
61,16746986.621765712
1544,16746986.621765712
2,8, 1, 8, 0, 3, 0.00,60.00,Sunday
61,16746986.621765712
1544,16746986.621765712
2,8, 1, 8, 0, 4, 0.00,60.00,Sunday
61,16746986.621765712
1544,16746986.621765712
2,8, 1, 8, 0, 5, 0.00,60.00,Sunday
61,16746986.621765712
1544,16746986.621765712
2,8, 1, 8, 0, 6, 0.00,60.00,Sunday
61,16746986.621765712
1544,16746986.621765712
2,8, 1, 8, 0, 7, 0.00,60.00,Sunday
61,18001160.247129552
1544,18001160.24712955
2,8, 1, 8, 0, 8, 0.00,60.00,Sunday
61,12948806.621765712
1544,12948806.621765712
2,8, 1, 8, 0, 9, 0.00,60.00,Sunday
61,11049716.621765712
1544,11049716.621765712
2,8, 1, 8, 0,10, 0.00,60.00,Sunday
61,11049716.621765712
1544,11049716.621765712
2,8, 1, 8, 0,11, 0.00,60.00,Sunday
61,11049716.621765712
1544,11049716.621765712
2,8, 1, 8, 0,12, 0.00,60.00,Sunday
61,12304014.673444655
1544,12304014.673444655
2,8, 1, 8, 0,13, 0.00,60.00,Sunday
61,11049716.621765712
1544,11049716.621765712
2,8, 1, 8, 0,14, 0.00,60.00,Sunday
61,11049716.621765712
1544,11049716.621765712
2,8, 1, 8, 0,15, 0.00,60.00,Sunday
61,11049716.621765712
1544,11049716.621765712
2,8, 1, 8, 0,16, 0.00,60.00,Sunday
61,11049716.621765712
1544,11049716.621765712
2,8, 1, 8, 0,17, 0.00,60.00,Sunday
61,12304060.214991273
1544,12304060.214991273
2,8, 1, 8, 0,18, 0.00,60.00,Sunday
61,12948806.621765712
1544,12948806.621765712
2,8, 1, 8, 0,19, 0.00,60.00,Sunday
61,16746986.621765712
1544,16746986.621765712
2,8, 1, 8, 0,20, 0.00,60.00,Sunday
61,17646986.62176571
1544,17646986.62176571
2,8, 1, 8, 0,21, 0.00,60.00,Sunday
61,17646986.62176571
1544,17646986.62176571
2,8, 1, 8, 0,22, 0.00,60.00,Sunday
61,18901436.52374687
1544,18901436.52374687
2,8, 1, 8, 0,23, 0.00,60.00,Sunday
61,17646986.62176571
1544,17646986.62176571
2,8, 1, 8, 0,24, 0.00,60.00,Sunday
61,17646986.62176571
1544,17646986.62176571
2,9, 1, 9, 0, 1, 0.00,60.00,Monday
61,21390583.1172087
1544,21390583.1172087
2,9, 1, 9, 0, 2, 0.00,60.00,Monday
61,21390583.1172087
1544,21390583.1172087
2,9, 1, 9, 0, 3, 0.00,60.00,Monday
61,22645084.809724372
1544,22645084.809724372
2,9, 1, 9, 0, 4, 0.00,60.00,Monday
61,21527161.80196666
1544,21527161.801966652
2,9, 1, 9, 0, 5, 0.00,60.00,Monday
61,21991886.897309903
1544,21991886.8973099
2,9, 1, 9, 0, 6, 0.00,60.00,Monday
61,24125185.546847124
1544,24125185.54684712
2,9, 1, 9, 0, 7, 0.00,60.00,Monday
61,77913584.50038254
1544,77913584.50038256
2,9, 1, 9, 0, 8, 0.00,60.00,Monday
61,67772551.15898372
1544,67772551.15898374
2,9, 1, 9, 0, 9, 0.00,60.00,Monday
61,64621527.124561094
1544,64621527.124561116
2,9, 1, 9, 0,10, 0.00,60.00,Monday
61,60310260.271221116
1544,60310260.27122113
2,9, 1, 9, 0,11, 0.00,60.00,Monday
61,57209976.85835783
1544,57209976.85835785
2,9, 1, 9, 0,12, 0.00,60.00,Monday
61,57657231.271012634
1544,57657231.271012634
2,9, 1, 9, 0,13, 0.00,60.00,Monday
61,55751209.55094674
1544,55751209.550946735
2,9, 1, 9, 0,14, 0.00,60.00,Monday
61,54364439.62472024
1544,54364439.62472024
2,9, 1, 9, 0,15, 0.00,60.00,Monday
61,55334821.44729644
1544,55334821.44729644
2,9, 1, 9, 0,16, 0.00,60.00,Monday
61,54823217.62794952
1544,54823217.62794952
2,9, 1, 9, 0,17, 0.00,60.00,Monday
61,54669667.08671467
1544,54669667.08671467
2,9, 1, 9, 0,18, 0.00,60.00,Monday
61,47755710.52420501
1544,47755710.524205
2,9, 1, 9, 0,19, 0.00,60.00,Monday
61,41807609.48793142
1544,41807609.48793142
2,9, 1, 9, 0,20, 0.00,60.00,Monday
61,39006697.28431066
1544,39006697.284310654
2,9, 1, 9, 0,21, 0.00,60.00,Monday
61,36672016.31950472
1544,36672016.31950472
2,9, 1, 9, 0,22, 0.00,60.00,Monday
61,35398483.171306714
1544,35398483.171306714
2,9, 1, 9, 0,23, 0.00,60.00,Monday
61,19805534.75587618
1544,19805534.755876176
2,9, 1, 9, 0,24, 0.00,60.00,Monday
61,16746986.621765712
1544,16746986.621765712
2,10, 1,10, 0, 1, 0.00,60.00,Tuesday
61,20490583.1172087
1544,20490583.1172087
2,10, 1,10, 0, 2, 0.00,60.00,Tuesday
61,20490583.1172087
1544,20490583.1172087
2,10, 1,10, 0, 3, 0.00,60.00,Tuesday
61,20490583.1172087
1544,20490583.1172087
2,10, 1,10, 0, 4, 0.00,60.00,Tuesday
61,21744963.640306965
1544,21744963.640306965
2,10, 1,10, 0, 5, 0.00,60.00,Tuesday
61,20490583.1172087
1544,20490583.1172087
2,10, 1,10, 0, 6, 0.00,60.00,Tuesday
61,22294690.17370852
1544,22294690.17370852
2,10, 1,10, 0, 7, 0.00,60.00,Tuesday
61,41073916.169841655
1544,41073916.169841655
2,10, 1,10, 0, 8, 0.00,60.00,Tuesday
61,44070888.724563524
1544,44070888.72456352
2,10, 1,10, 0, 9, 0.00,60.00,Tuesday
61,54181697.29966609
1544,54181697.29966611
2,10, 1,10, 0,10, 0.00,60.00,Tuesday
61,54720957.0236295
1544,54720957.0236295
2,10, 1,10, 0,11, 0.00,60.00,Tuesday
61,57843991.80014345
1544,57843991.80014346
2,10, 1,10, 0,12, 0.00,60.00,Tuesday
61,57716312.52129543
1544,57716312.52129544
2,10, 1,10, 0,13, 0.00,60.00,Tuesday
61,56672321.87327586
1544,56672321.87327586
2,10, 1,10, 0,14, 0.00,60.00,Tuesday
61,60353258.26067177
1544,60353258.26067177
2,10, 1,10, 0,15, 0.00,60.00,Tuesday
61,59802319.316714376
1544,59802319.316714376
2,10, 1,10, 0,16, 0.00,60.00,Tuesday
61,61617911.81375389
1544,61617911.81375389
2,10, 1,10, 0,17, 0.00,60.00,Tuesday
61,59795809.033212036
1544,59795809.03321204
2,10, 1,10, 0,18, 0.00,60.00,Tuesday
61,48430346.62519569
1544,48430346.62519568
2,10, 1,10, 0,19, 0.00,60.00,Tuesday
61,40287273.46952429
1544,40287273.46952428
2,10, 1,10, 0,20, 0.00,60.00,Tuesday
61,39006697.28431066
1544,39006697.284310654
2,10, 1,10, 0,21, 0.00,60.00,Tuesday
61,36671610.57634434
1544,36671610.57634434
2,10, 1,10, 0,22, 0.00,60.00,Tuesday
61,35398483.171306714
1544,35398483.171306714
2,10, 1,10, 0,23, 0.00,60.00,Tuesday
61,19805249.38796104
1544,19805249.387961037
2,10, 1,10, 0,24, 0.00,60.00,Tuesday
61,16746986.621765712
1544,16746986.621765712
2,11, 1,11, 0, 1, 0.00,60.00,Wednesday
61,20490583.1172087
1544,20490583.1172087
2,11, 1,11, 0, 2, 0.00,60.00,Wednesday
61,20490583.1172087
1544,20490583.1172087
2,11, 1,11, 0, 3, 0.00,60.00,Wednesday
61,20490583.1172087
1544,20490583.1172087
2,11, 1,11, 0, 4, 0.00,60.00,Wednesday
61,20490583.1172087
1544,20490583.1172087
2,11, 1,11, 0, 5, 0.00,60.00,Wednesday
61,21744802.356649026
1544,21744802.356649026
2,11, 1,11, 0, 6, 0.00,60.00,Wednesday
61,22294690.17370852
1544,22294690.17370852
2,11, 1,11, 0, 7, 0.00,60.00,Wednesday
61,40154947.43769273
1544,40154947.437692724
2,11, 1,11, 0, 8, 0.00,60.00,Wednesday
61,44783462.518117055
1544,44783462.518117055
2,11, 1,11, 0, 9, 0.00,60.00,Wednesday
61,54168867.92551996
1544,54168867.92551996
2,11, 1,11, 0,10, 0.00,60.00,Wednesday
61,54715543.36250538
1544,54715543.362505384
2,11, 1,11, 0,11, 0.00,60.00,Wednesday
61,57449452.773704804
1544,57449452.77370481
2,11, 1,11, 0,12, 0.00,60.00,Wednesday
61,57197528.994231105
1544,57197528.994231105
2,11, 1,11, 0,13, 0.00,60.00,Wednesday
61,55744468.30499323
1544,55744468.30499323
2,11, 1,11, 0,14, 0.00,60.00,Wednesday
61,60268781.176320836
1544,60268781.176320836
2,11, 1,11, 0,15, 0.00,60.00,Wednesday
61,60598078.37525203
1544,60598078.37525203
2,11, 1,11, 0,16, 0.00,60.00,Wednesday
61,60508605.38470593
1544,60508605.38470593
2,11, 1,11, 0,17, 0.00,60.00,Wednesday
61,61106766.19249134
1544,61106766.192491345
2,11, 1,11, 0,18, 0.00,60.00,Wednesday
61,49209007.261561
1544,49209007.26156101
2,11, 1,11, 0,19, 0.00,60.00,Wednesday
61,40287038.67577588
1544,40287038.67577587
2,11, 1,11, 0,20, 0.00,60.00,Wednesday
61,39006697.28431066
1544,39006697.284310654
2,11, 1,11, 0,21, 0.00,60.00,Wednesday
61,36671410.588297985
1544,36671410.588297985
2,11, 1,11, 0,22, 0.00,60.00,Wednesday
61,35398483.171306714
1544,35398483.171306714
2,11, 1,11, 0,23, 0.00,60.00,Wednesday
61,18551093.678265538
1544,18551093.678265534
2,11, 1,11, 0,24, 0.00,60.00,Wednesday
61,16746986.621765712
1544,16746986.621765712
2,12, 1,12, 0, 1, 0.00,60.00,Thursday
61,21744612.783756897
1544,21744612.783756897
2,12, 1,12, 0, 2, 0.00,60.00,Thursday
61,20490583.1172087
1544,20490583.1172087
2,12, 1,12, 0, 3, 0.00,60.00,Thursday
61,20490583.1172087
1544,20490583.1172087
2,12, 1,12, 0, 4, 0.00,60.00,Thursday
61,20490583.1172087
1544,20490583.1172087
2,12, 1,12, 0, 5, 0.00,60.00,Thursday
61,20490583.1172087
1544,20490583.1172087
2,12, 1,12, 0, 6, 0.00,60.00,Thursday
61,23548690.78931711
1544,23548690.78931711
2,12, 1,12, 0, 7, 0.00,60.00,Thursday
61,36819197.442748375
1544,36819197.44274837
2,12, 1,12, 0, 8, 0.00,60.00,Thursday
61,39184568.89798212
1544,39184568.89798212
2,12, 1,12, 0, 9, 0.00,60.00,Thursday
61,56696643.38586532
1544,56696643.385865316
2,12, 1,12, 0,10, 0.00,60.00,Thursday
61,56318280.27037131
1544,56318280.270371325
2,12, 1,12, 0,11, 0.00,60.00,Thursday
61,58147308.32156503
1544,58147308.32156504
2,12, 1,12, 0,12, 0.00,60.00,Thursday
61,59965188.1960237
1544,59965188.19602371
2,12, 1,12, 0,13, 0.00,60.00,Thursday
61,56472668.830521636
1544,56472668.830521636
2,12, 1,12, 0,14, 0.00,60.00,Thursday
61,61138373.92017821
1544,61138373.92017823
2,12, 1,12, 0,15, 0.00,60.00,Thursday
61,60606088.574118875
1544,60606088.57411888
2,12, 1,12, 0,16, 0.00,60.00,Thursday
61,60522656.997101404
1544,60522656.997101404
2,12, 1,12, 0,17, 0.00,60.00,Thursday
61,60789312.591286436
1544,60789312.59128644
2,12, 1,12, 0,18, 0.00,60.00,Thursday
61,47922924.240635455
1544,47922924.240635455
2,12, 1,12, 0,19, 0.00,60.00,Thursday
61,40287222.44037729
1544,40287222.44037728
2,12, 1,12, 0,20, 0.00,60.00,Thursday
61,40273458.002065234
1544,40273458.00206523
2,12, 1,12, 0,21, 0.00,60.00,Thursday
61,35398483.17131406
1544,35398483.17131406
2,12, 1,12, 0,22, 0.00,60.00,Thursday
61,36658828.50790468
1544,36658828.50790468
2,12, 1,12, 0,23, 0.00,60.00,Thursday
61,18551093.678265538
1544,18551093.678265534
2,12, 1,12, 0,24, 0.00,60.00,Thursday
61,16746986.621765712
1544,16746986.621765712
2,13, 1,13, 0, 1, 0.00,60.00,Friday
61,20490583.1172087
1544,20490583.1172087
2,13, 1,13, 0, 2, 0.00,60.00,Friday
61,21744301.540747594
1544,21744301.540747594
2,13, 1,13, 0, 3, 0.00,60.00,Friday
61,20490583.1172087
1544,20490583.1172087
2,13, 1,13, 0, 4, 0.00,60.00,Friday
61,20490583.1172087
1544,20490583.1172087
2,13, 1,13, 0, 5, 0.00,60.00,Friday
61,20490583.1172087
1544,20490583.1172087
2,13, 1,13, 0, 6, 0.00,60.00,Friday
61,22294690.17370852
1544,22294690.17370852
2,13, 1,13, 0, 7, 0.00,60.00,Friday
61,40105573.07716577
1544,40105573.07716577
2,13, 1,13, 0, 8, 0.00,60.00,Friday
61,43196137.849321
1544,43196137.849321
2,13, 1,13, 0, 9, 0.00,60.00,Friday
61,54679409.34587381
1544,54679409.3458738
2,13, 1,13, 0,10, 0.00,60.00,Friday
61,56344350.00790931
1544,56344350.00790931
2,13, 1,13, 0,11, 0.00,60.00,Friday
61,56085086.32232636
1544,56085086.32232638
2,13, 1,13, 0,12, 0.00,60.00,Friday
61,58496761.92703943
1544,58496761.927039415
2,13, 1,13, 0,13, 0.00,60.00,Friday
61,55714452.42393068
1544,55714452.42393069
2,13, 1,13, 0,14, 0.00,60.00,Friday
61,59149173.170218915
1544,59149173.17021891
2,13, 1,13, 0,15, 0.00,60.00,Friday
61,61403856.41904859
1544,61403856.41904859
2,13, 1,13, 0,16, 0.00,60.00,Friday
61,60420488.93751887
1544,60420488.93751887
2,13, 1,13, 0,17, 0.00,60.00,Friday
61,60124506.88683097
1544,60124506.886830986
2,13, 1,13, 0,18, 0.00,60.00,Friday
61,48158780.44700797
1544,48158780.44700797
2,13, 1,13, 0,19, 0.00,60.00,Friday
61,40287175.69676204
1544,40287175.69676203
2,13, 1,13, 0,20, 0.00,60.00,Friday
61,39006697.28431066
1544,39006697.284310654
2,13, 1,13, 0,21, 0.00,60.00,Friday
61,36671757.27602734
1544,36671757.27602734
2,13, 1,13, 0,22, 0.00,60.00,Friday
61,36658909.89340356
1544,36658909.89340356
2,13, 1,13, 0,23, 0.00,60.00,Friday
61,18551093.678265538
1544,18551093.678265534
2,13, 1,13, 0,24, 0.00,60.00,Friday
61,16746986.621765712
1544,16746986.621765712
2,14, 1,14, 0, 1, 0.00,60.00,Saturday
61,16746986.621765712
1544,16746986.621765712
2,14, 1,14, 0, 2, 0.00,60.00,Saturday
61,16746986.621765712
1544,16746986.621765712
2,14, 1,14, 0, 3, 0.00,60.00,Saturday
61,16746986.621765712
1544,16746986.621765712
2,14, 1,14, 0, 4, 0.00,60.00,Saturday
61,18001045.810670856
1544,18001045.810670856
2,14, 1,14, 0, 5, 0.00,60.00,Saturday
61,16746986.621765712
1544,16746986.621765712
2,14, 1,14, 0, 6, 0.00,60.00,Saturday
61,16746986.621765712
1544,16746986.621765712
2,14, 1,14, 0, 7, 0.00,60.00,Saturday
61,16746986.621765712
1544,16746986.621765712
2,14, 1,14, 0, 8, 0.00,60.00,Saturday
61,12948806.621765712
1544,12948806.621765712
2,14, 1,14, 0, 9, 0.00,60.00,Saturday
61,12303864.872914432
1544,12303864.872914432
2,14, 1,14, 0,10, 0.00,60.00,Saturday
61,11049716.621765712
1544,11049716.621765712
2,14, 1,14, 0,11, 0.00,60.00,Saturday
61,11049716.621765712
1544,11049716.621765712
2,14, 1,14, 0,12, 0.00,60.00,Saturday
61,11049716.621765712
1544,11049716.621765712
2,14, 1,14, 0,13, 0.00,60.00,Saturday
61,11049716.621765712
1544,11049716.621765712
2,14, 1,14, 0,14, 0.00,60.00,Saturday
61,12303763.443724781
1544,12303763.443724783
2,14, 1,14, 0,15, 0.00,60.00,Saturday
61,11049716.621765712
1544,11049716.621765712
2,14, 1,14, 0,16, 0.00,60.00,Saturday
61,11049716.621765712
1544,11049716.621765712
2,14, 1,14, 0,17, 0.00,60.00,Saturday
61,11049716.621765712
1544,11049716.621765712
2,14, 1,14, 0,18, 0.00,60.00,Saturday
61,11999261.621765712
1544,11999261.621765712
2,14, 1,14, 0,19, 0.00,60.00,Saturday
61,16746986.621765712
1544,16746986.621765712
2,14, 1,14, 0,20, 0.00,60.00,Saturday
61,18000978.796322994
1544,18000978.796322994
2,14, 1,14, 0,21, 0.00,60.00,Saturday
61,16746986.621765712
1544,16746986.621765712
2,14, 1,14, 0,22, 0.00,60.00,Saturday
61,16746986.621765712
1544,16746986.621765712
2,14, 1,14, 0,23, 0.00,60.00,Saturday
61,16746986.621765712
1544,16746986.621765712
2,14, 1,14, 0,24, 0.00,60.00,Saturday
61,16746986.621765712
1544,16746986.621765712
2,15, 1,15, 0, 1, 0.00,60.00,Sunday
61,18001078.935235873
1544,18001078.935235873
2,15, 1,15, 0, 2, 0.00,60.00,Sunday
61,16746986.621765712
1544,16746986.621765712
2,15, 1,15, 0, 3, 0.00,60.00,Sunday
61,16746986.621765712
1544,16746986.621765712
2,15, 1,15, 0, 4, 0.00,60.00,Sunday
61,16746986.621765712
1544,16746986.621765712
2,15, 1,15, 0, 5, 0.00,60.00,Sunday
61,16746986.621765712
1544,16746986.621765712
2,15, 1,15, 0, 6, 0.00,60.00,Sunday
61,18001176.821687862
1544,18001176.821687862
2,15, 1,15, 0, 7, 0.00,60.00,Sunday
61,16746986.621765712
1544,16746986.621765712
2,15, 1,15, 0, 8, 0.00,60.00,Sunday
61,12948806.621765712
1544,12948806.621765712
2,15, 1,15, 0, 9, 0.00,60.00,Sunday
61,11049716.621765712
1544,11049716.621765712
2,15, 1,15, 0,10, 0.00,60.00,Sunday
61,11049716.621765712
1544,11049716.621765712
2,15, 1,15, 0,11, 0.00,60.00,Sunday
61,11049716.621765712
1544,11049716.621765712
2,15, 1,15, 0,12, 0.00,60.00,Sunday
61,12303896.982764121
1544,12303896.982764121
2,15, 1,15, 0,13, 0.00,60.00,Sunday
61,11049716.621765712
1544,11049716.621765712
2,15, 1,15, 0,14, 0.00,60.00,Sunday
61,11049716.621765712
1544,11049716.621765712
2,15, 1,15, 0,15, 0.00,60.00,Sunday
61,11049716.621765712
1544,11049716.621765712
2,15, 1,15, 0,16, 0.00,60.00,Sunday
61,11049716.621765712
1544,11049716.621765712
2,15, 1,15, 0,17, 0.00,60.00,Sunday
61,12303755.350426454
1544,12303755.350426454
2,15, 1,15, 0,18, 0.00,60.00,Sunday
61,11999261.621765712
1544,11999261.621765712
2,15, 1,15, 0,19, 0.00,60.00,Sunday
61,16746986.621765712
1544,16746986.621765712
2,15, 1,15, 0,20, 0.00,60.00,Sunday
61,16746986.621765712
1544,16746986.621765712
2,15, 1,15, 0,21, 0.00,60.00,Sunday
61,16746986.621765712
1544,16746986.621765712
2,15, 1,15, 0,22, 0.00,60.00,Sunday
61,18001073.50566497
1544,18001073.50566497
2,15, 1,15, 0,23, 0.00,60.00,Sunday
61,16746986.621765712
1544,16746986.621765712
2,15, 1,15, 0,24, 0.00,60.00,Sunday
61,16746986.621765712
1544,16746986.621765712