Program Version,EnergyPlus, Version 22.2.0-c249759bad, YMD=2023.02.05 16:28
1,5,Environment Title[],Latitude[deg],Longitude[deg],Time Zone[],Elevation[m]
2,8,Day of Simulation[],Month[],Day of Month[],DST Indicator[1=yes 0=no],Hour[],StartMinute[],EndMinute[],DayType
3,5,Cumulative Day of Simulation[],Month[],Day of Month[],DST Indicator[1=yes 0=no],DayType  ! When Daily Meters Requested
4,2,Cumulative Days of Simulation[],Month[]  ! When Monthly Meters Requested
5,1,Cumulative Days of Simulation[] ! When Run Period Meters Requested
6,1,Calendar Year of Simulation[] ! When Annual Meters Requested
61,1,Electricity:Facility [J] !Hourly
1510,1,ElectricityNet:Facility [J] !Hourly
1857,1,NaturalGas:Facility [J] !Hourly
End of Data Dictionary
1,RUN PERIOD 1,  27.97, -82.53,  -5.00,   6.00
2,1, 1, 1, 0, 1, 0.00,60.00,Sunday
61,13817531.214026311
1510,13817531.214026311
1857,0.0
2,1, 1, 1, 0, 2, 0.00,60.00,Sunday
61,13817531.214026311
1510,13817531.214026311
1857,0.0
2,1, 1, 1, 0, 3, 0.00,60.00,Sunday
61,13817531.214026311
1510,13817531.214026311
1857,0.0
2,1, 1, 1, 0, 4, 0.00,60.00,Sunday
61,13817531.214026311
1510,13817531.214026311
1857,0.0
2,1, 1, 1, 0, 5, 0.00,60.00,Sunday
61,13817531.214026311
1510,13817531.214026311
1857,0.0
2,1, 1, 1, 0, 6, 0.00,60.00,Sunday
61,15071388.431107052
1510,15071388.43110705
1857,0.0
2,1, 1, 1, 0, 7, 0.00,60.00,Sunday
61,13817531.214026311
1510,13817531.214026311
1857,0.0
2,1, 1, 1, 0, 8, 0.00,60.00,Sunday
61,10019351.214026311
1510,10019351.214026311
1857,0.0
2,1, 1, 1, 0, 9, 0.00,60.00,Sunday
61,8120261.214026311
1510,8120261.214026311
1857,0.0
2,1, 1, 1, 0,10, 0.00,60.00,Sunday
61,8120261.214026311
1510,8120261.214026311
1857,0.0
2,1, 1, 1, 0,11, 0.00,60.00,Sunday
61,9374060.886059677
1510,9374060.886059677
1857,0.0
2,1, 1, 1, 0,12, 0.00,60.00,Sunday
61,8120261.214026311
1510,8120261.214026311
1857,0.0
2,1, 1, 1, 0,13, 0.00,60.00,Sunday
61,8120261.214026311
1510,8120261.214026311
1857,0.0
2,1, 1, 1, 0,14, 0.00,60.00,Sunday
61,8120261.214026311
1510,8120261.214026311
1857,0.0
2,1, 1, 1, 0,15, 0.00,60.00,Sunday
61,8120261.214026311
1510,8120261.214026311
1857,0.0
2,1, 1, 1, 0,16, 0.00,60.00,Sunday
61,8488914.153933687
1510,8488914.153933687
1857,0.0
2,1, 1, 1, 0,17, 0.00,60.00,Sunday
61,9005456.032721372
1510,9005456.032721372
1857,0.0
2,1, 1, 1, 0,18, 0.00,60.00,Sunday
61,10019351.214026311
1510,10019351.214026311
1857,0.0
2,1, 1, 1, 0,19, 0.00,60.00,Sunday
61,13817531.214026311
1510,13817531.214026311
1857,0.0
2,1, 1, 1, 0,20, 0.00,60.00,Sunday
61,13817531.214026311
1510,13817531.214026311
1857,0.0
2,1, 1, 1, 0,21, 0.00,60.00,Sunday
61,13817531.214026311
1510,13817531.214026311
1857,0.0
2,1, 1, 1, 0,22, 0.00,60.00,Sunday
61,15071597.651690345
1510,15071597.651690345
1857,0.0
2,1, 1, 1, 0,23, 0.00,60.00,Sunday
61,13817531.214026311
1510,13817531.214026311
1857,0.0
2,1, 1, 1, 0,24, 0.00,60.00,Sunday
61,13817531.214026311
1510,13817531.214026311
1857,0.0
2,2, 1, 2, 0, 1, 0.00,60.00,Monday
61,17561127.7094693
1510,17561127.7094693
1857,0.0
2,2, 1, 2, 0, 2, 0.00,60.00,Monday
61,17561127.7094693
1510,17561127.7094693
1857,0.0
2,2, 1, 2, 0, 3, 0.00,60.00,Monday
61,18815133.5385654
1510,18815133.5385654
1857,0.0
2,2, 1, 2, 0, 4, 0.00,60.00,Monday
61,17561127.7094693
1510,17561127.7094693
1857,0.0
2,2, 1, 2, 0, 5, 0.00,60.00,Monday
61,17561127.7094693
1510,17561127.7094693
1857,0.0
2,2, 1, 2, 0, 6, 0.00,60.00,Monday
61,18551497.152708184
1510,18551497.152708184
1857,0.0
2,2, 1, 2, 0, 7, 0.00,60.00,Monday
61,27368416.73176816
1510,27368416.73176816
1857,0.0
2,2, 1, 2, 0, 8, 0.00,60.00,Monday
61,28644526.30150691
1510,28644526.301506914
1857,0.0
2,2, 1, 2, 0, 9, 0.00,60.00,Monday
61,48761317.41170883
1510,48761317.41170883
1857,0.0
2,2, 1, 2, 0,10, 0.00,60.00,Monday
61,51298858.676234506
1510,51298858.67623449
1857,0.0
2,2, 1, 2, 0,11, 0.00,60.00,Monday
61,55100672.40672263
1510,55100672.40672263
1857,0.0
2,2, 1, 2, 0,12, 0.00,60.00,Monday
61,55291556.321553975
1510,55291556.321553975
1857,0.0
2,2, 1, 2, 0,13, 0.00,60.00,Monday
61,52040270.07576257
1510,52040270.07576257
1857,0.0
2,2, 1, 2, 0,14, 0.00,60.00,Monday
61,56870407.663339466
1510,56870407.66333946
1857,0.0
2,2, 1, 2, 0,15, 0.00,60.00,Monday
61,55716177.422795124
1510,55716177.42279511
1857,0.0
2,2, 1, 2, 0,16, 0.00,60.00,Monday
61,55755187.371873364
1510,55755187.37187336
1857,0.0
2,2, 1, 2, 0,17, 0.00,60.00,Monday
61,56306465.89710832
1510,56306465.89710832
1857,0.0
2,2, 1, 2, 0,18, 0.00,60.00,Monday
61,39538217.224697396
1510,39538217.22469739
1857,0.0
2,2, 1, 2, 0,19, 0.00,60.00,Monday
61,27526683.49513759
1510,27526683.495137595
1857,0.0
2,2, 1, 2, 0,20, 0.00,60.00,Monday
61,18571304.54158304
1510,18571304.54158304
1857,0.0
2,2, 1, 2, 0,21, 0.00,60.00,Monday
61,17863401.848677367
1510,17863401.848677363
1857,0.0
2,2, 1, 2, 0,22, 0.00,60.00,Monday
61,16590565.655100973
1510,16590565.655100973
1857,0.0
2,2, 1, 2, 0,23, 0.00,60.00,Monday
61,14807900.657265197
1510,14807900.657265196
1857,0.0
2,2, 1, 2, 0,24, 0.00,60.00,Monday
61,15071369.93891871
1510,15071369.93891871
1857,0.0
2,3, 1, 3, 0, 1, 0.00,60.00,Tuesday
61,17561127.7094693
1510,17561127.7094693
1857,0.0
2,3, 1, 3, 0, 2, 0.00,60.00,Tuesday
61,17561127.7094693
1510,17561127.7094693
1857,0.0
2,3, 1, 3, 0, 3, 0.00,60.00,Tuesday
61,17561127.7094693
1510,17561127.7094693
1857,0.0
2,3, 1, 3, 0, 4, 0.00,60.00,Tuesday
61,17561127.7094693
1510,17561127.7094693
1857,0.0
2,3, 1, 3, 0, 5, 0.00,60.00,Tuesday
61,17561127.7094693
1510,17561127.7094693
1857,0.0
2,3, 1, 3, 0, 6, 0.00,60.00,Tuesday
61,19805311.46036959
1510,19805311.46036959
1857,0.0
2,3, 1, 3, 0, 7, 0.00,60.00,Tuesday
61,27889172.692471143
1510,27889172.692471143
1857,0.0
2,3, 1, 3, 0, 8, 0.00,60.00,Tuesday
61,29147081.53222537
1510,29147081.532225374
1857,0.0
2,3, 1, 3, 0, 9, 0.00,60.00,Tuesday
61,47543885.33375584
1510,47543885.33375583
1857,0.0
2,3, 1, 3, 0,10, 0.00,60.00,Tuesday
61,48529306.210979484
1510,48529306.21097948
1857,0.0
2,3, 1, 3, 0,11, 0.00,60.00,Tuesday
61,49522792.781148
1510,49522792.781148
1857,0.0
2,3, 1, 3, 0,12, 0.00,60.00,Tuesday
61,52536740.06884663
1510,52536740.06884661
1857,0.0
2,3, 1, 3, 0,13, 0.00,60.00,Tuesday
61,46676507.639483854
1510,46676507.639483854
1857,0.0
2,3, 1, 3, 0,14, 0.00,60.00,Tuesday
61,50943079.938478194
1510,50943079.9384782
1857,0.0
2,3, 1, 3, 0,15, 0.00,60.00,Tuesday
61,48040851.74015785
1510,48040851.74015784
1857,0.0
2,3, 1, 3, 0,16, 0.00,60.00,Tuesday
61,46981203.55197351
1510,46981203.55197351
1857,0.0
2,3, 1, 3, 0,17, 0.00,60.00,Tuesday
61,47884127.37861061
1510,47884127.37861061
1857,0.0
2,3, 1, 3, 0,18, 0.00,60.00,Tuesday
61,31470555.36047294
1510,31470555.360472944
1857,0.0
2,3, 1, 3, 0,19, 0.00,60.00,Tuesday
61,27527036.334651627
1510,27527036.33465163
1857,0.0
2,3, 1, 3, 0,20, 0.00,60.00,Tuesday
61,19837808.41922896
1510,19837808.41922896
1857,0.0
2,3, 1, 3, 0,21, 0.00,60.00,Tuesday
61,16590565.655108327
1510,16590565.655108325
1857,0.0
2,3, 1, 3, 0,22, 0.00,60.00,Tuesday
61,17850671.032327645
1510,17850671.032327645
1857,0.0
2,3, 1, 3, 0,23, 0.00,60.00,Tuesday
61,14807900.657265197
1510,14807900.657265196
1857,0.0
2,3, 1, 3, 0,24, 0.00,60.00,Tuesday
61,13817531.214026311
1510,13817531.214026311
1857,0.0
2,4, 1, 4, 0, 1, 0.00,60.00,Wednesday
61,17561127.7094693
1510,17561127.7094693
1857,0.0
2,4, 1, 4, 0, 2, 0.00,60.00,Wednesday
61,18814990.331163123
1510,18814990.331163123
1857,0.0
2,4, 1, 4, 0, 3, 0.00,60.00,Wednesday
61,17561127.7094693
1510,17561127.7094693
1857,0.0
2,4, 1, 4, 0, 4, 0.00,60.00,Wednesday
61,17561127.7094693
1510,17561127.7094693
1857,0.0
2,4, 1, 4, 0, 5, 0.00,60.00,Wednesday
61,17561127.7094693
1510,17561127.7094693
1857,0.0
2,4, 1, 4, 0, 6, 0.00,60.00,Wednesday
61,18551497.152708184
1510,18551497.152708184
1857,0.0
2,4, 1, 4, 0, 7, 0.00,60.00,Wednesday
61,26691347.057398614
1510,26691347.057398614
1857,0.0
2,4, 1, 4, 0, 8, 0.00,60.00,Wednesday
61,30412175.766009785
1510,30412175.76600979
1857,0.0
2,4, 1, 4, 0, 9, 0.00,60.00,Wednesday
61,41793655.840367585
1510,41793655.840367585
1857,0.0
2,4, 1, 4, 0,10, 0.00,60.00,Wednesday
61,43419647.307314515
1510,43419647.307314515
1857,0.0
2,4, 1, 4, 0,11, 0.00,60.00,Wednesday
61,42435598.22851642
1510,42435598.22851642
1857,0.0
2,4, 1, 4, 0,12, 0.00,60.00,Wednesday
61,45807823.36610475
1510,45807823.36610475
1857,0.0
2,4, 1, 4, 0,13, 0.00,60.00,Wednesday
61,42399464.27994739
1510,42399464.2799474
1857,0.0
2,4, 1, 4, 0,14, 0.00,60.00,Wednesday
61,47637428.60145783
1510,47637428.60145782
1857,0.0
2,4, 1, 4, 0,15, 0.00,60.00,Wednesday
61,49602428.734055236
1510,49602428.73405523
1857,0.0
2,4, 1, 4, 0,16, 0.00,60.00,Wednesday
61,49765103.59106851
1510,49765103.5910685
1857,0.0
2,4, 1, 4, 0,17, 0.00,60.00,Wednesday
61,48994733.96403627
1510,48994733.96403627
1857,0.0
2,4, 1, 4, 0,18, 0.00,60.00,Wednesday
61,33462667.70636074
1510,33462667.70636074
1857,0.0
2,4, 1, 4, 0,19, 0.00,60.00,Wednesday
61,27526968.10203249
1510,27526968.102032494
1857,0.0
2,4, 1, 4, 0,20, 0.00,60.00,Wednesday
61,18571304.54158304
1510,18571304.54158304
1857,0.0
2,4, 1, 4, 0,21, 0.00,60.00,Wednesday
61,17863432.17919405
1510,17863432.17919405
1857,0.0
2,4, 1, 4, 0,22, 0.00,60.00,Wednesday
61,16590565.655100973
1510,16590565.655100973
1857,0.0
2,4, 1, 4, 0,23, 0.00,60.00,Wednesday
61,16061757.761141233
1510,16061757.761141231
1857,0.0
2,4, 1, 4, 0,24, 0.00,60.00,Wednesday
61,13817531.214026311
1510,13817531.214026311
1857,0.0
2,5, 1, 5, 0, 1, 0.00,60.00,Thursday
61,17561127.7094693
1510,17561127.7094693
1857,0.0
2,5, 1, 5, 0, 2, 0.00,60.00,Thursday
61,17561127.7094693
1510,17561127.7094693
1857,0.0
2,5, 1, 5, 0, 3, 0.00,60.00,Thursday
61,17561127.7094693
1510,17561127.7094693
1857,0.0
2,5, 1, 5, 0, 4, 0.00,60.00,Thursday
61,18815016.493558217
1510,18815016.49355822
1857,0.0
2,5, 1, 5, 0, 5, 0.00,60.00,Thursday
61,17561127.7094693
1510,17561127.7094693
1857,0.0
2,5, 1, 5, 0, 6, 0.00,60.00,Thursday
61,18551497.152708184
1510,18551497.152708184
1857,0.0
2,5, 1, 5, 0, 7, 0.00,60.00,Thursday
61,26592603.788847025
1510,26592603.788847025
1857,0.0
2,5, 1, 5, 0, 8, 0.00,60.00,Thursday
61,28561399.431173943
1510,28561399.431173947
1857,0.0
2,5, 1, 5, 0, 9, 0.00,60.00,Thursday
61,42231053.93659888
1510,42231053.93659888
1857,0.0
2,5, 1, 5, 0,10, 0.00,60.00,Thursday
61,42976635.09240983
1510,42976635.092409834
1857,0.0
2,5, 1, 5, 0,11, 0.00,60.00,Thursday
61,47185653.277559504
1510,47185653.277559504
1857,0.0
2,5, 1, 5, 0,12, 0.00,60.00,Thursday
61,47525344.82963313
1510,47525344.82963313
1857,0.0
2,5, 1, 5, 0,13, 0.00,60.00,Thursday
61,46085438.30783731
1510,46085438.30783731
1857,0.0
2,5, 1, 5, 0,14, 0.00,60.00,Thursday
61,52290962.607679114
1510,52290962.6076791
1857,0.0
2,5, 1, 5, 0,15, 0.00,60.00,Thursday
61,50533462.6322389
1510,50533462.632238895
1857,0.0
2,5, 1, 5, 0,16, 0.00,60.00,Thursday
61,50178555.71334132
1510,50178555.71334132
1857,0.0
2,5, 1, 5, 0,17, 0.00,60.00,Thursday
61,50737391.65868373
1510,50737391.65868372
1857,0.0
2,5, 1, 5, 0,18, 0.00,60.00,Thursday
61,34612491.06211348
1510,34612491.06211348
1857,0.0
2,5, 1, 5, 0,19, 0.00,60.00,Thursday
61,27526781.238715284
1510,27526781.23871529
1857,0.0
2,5, 1, 5, 0,20, 0.00,60.00,Thursday
61,18571304.54158304
1510,18571304.54158304
1857,0.0
2,5, 1, 5, 0,21, 0.00,60.00,Thursday
61,17863495.74341035
1510,17863495.743410345
1857,0.0
2,5, 1, 5, 0,22, 0.00,60.00,Thursday
61,16590565.655100973
1510,16590565.655100973
1857,0.0
2,5, 1, 5, 0,23, 0.00,60.00,Thursday
61,14807900.657265197
1510,14807900.657265196
1857,0.0
2,5, 1, 5, 0,24, 0.00,60.00,Thursday
61,13817531.214026311
1510,13817531.214026311
1857,0.0
2,6, 1, 6, 0, 1, 0.00,60.00,Friday
61,18814968.957817066
1510,18814968.95781707
1857,0.0
2,6, 1, 6, 0, 2, 0.00,60.00,Friday
61,17561127.7094693
1510,17561127.7094693
1857,0.0
2,6, 1, 6, 0, 3, 0.00,60.00,Friday
61,17561127.7094693
1510,17561127.7094693
1857,0.0
2,6, 1, 6, 0, 4, 0.00,60.00,Friday
61,17561127.7094693
1510,17561127.7094693
1857,0.0
2,6, 1, 6, 0, 5, 0.00,60.00,Friday
61,17561127.7094693
1510,17561127.7094693
1857,0.0
2,6, 1, 6, 0, 6, 0.00,60.00,Friday
61,18551497.152708184
1510,18551497.152708184
1857,0.0
2,6, 1, 6, 0, 7, 0.00,60.00,Friday
61,27962850.696484
1510,27962850.696484
1857,0.0
2,6, 1, 6, 0, 8, 0.00,60.00,Friday
61,26757443.76779176
1510,26757443.76779176
1857,0.0
2,6, 1, 6, 0, 9, 0.00,60.00,Friday
61,44426328.85998001
1510,44426328.85998002
1857,0.0
2,6, 1, 6, 0,10, 0.00,60.00,Friday
61,45961363.427143686
1510,45961363.42714368
1857,0.0
2,6, 1, 6, 0,11, 0.00,60.00,Friday
61,48776273.57870096
1510,48776273.57870095
1857,0.0
2,6, 1, 6, 0,12, 0.00,60.00,Friday
61,52435029.87833305
1510,52435029.87833303
1857,0.0
2,6, 1, 6, 0,13, 0.00,60.00,Friday
61,49960488.85631687
1510,49960488.85631687
1857,0.0
2,6, 1, 6, 0,14, 0.00,60.00,Friday
61,55745211.83066364
1510,55745211.83066363
1857,0.0
2,6, 1, 6, 0,15, 0.00,60.00,Friday
61,55774108.91720311
1510,55774108.9172031
1857,0.0
2,6, 1, 6, 0,16, 0.00,60.00,Friday
61,56309956.44022603
1510,56309956.44022602
1857,0.0
2,6, 1, 6, 0,17, 0.00,60.00,Friday
61,55736719.00442231
1510,55736719.00442231
1857,0.0
2,6, 1, 6, 0,18, 0.00,60.00,Friday
61,39977231.86593672
1510,39977231.86593672
1857,0.0
2,6, 1, 6, 0,19, 0.00,60.00,Friday
61,27526864.68658999
1510,27526864.686589994
1857,0.0
2,6, 1, 6, 0,20, 0.00,60.00,Friday
61,19837742.022032045
1510,19837742.022032045
1857,0.0
2,6, 1, 6, 0,21, 0.00,60.00,Friday
61,16590565.655108327
1510,16590565.655108325
1857,0.0
2,6, 1, 6, 0,22, 0.00,60.00,Friday
61,17850639.207184866
1510,17850639.207184866
1857,0.0
2,6, 1, 6, 0,23, 0.00,60.00,Friday
61,14807900.657265197
1510,14807900.657265196
1857,0.0
2,6, 1, 6, 0,24, 0.00,60.00,Friday
61,13817531.214026311
1510,13817531.214026311
1857,0.0
2,7, 1, 7, 0, 1, 0.00,60.00,Saturday
61,13817531.214026311
1510,13817531.214026311
1857,0.0
2,7, 1, 7, 0, 2, 0.00,60.00,Saturday
61,13817531.214026311
1510,13817531.214026311
1857,0.0
2,7, 1, 7, 0, 3, 0.00,60.00,Saturday
61,15071154.859717736
1510,15071154.859717736
1857,0.0
2,7, 1, 7, 0, 4, 0.00,60.00,Saturday
61,13817531.214026311
1510,13817531.214026311
1857,0.0
2,7, 1, 7, 0, 5, 0.00,60.00,Saturday
61,13817531.214026311
1510,13817531.214026311
1857,0.0
2,7, 1, 7, 0, 6, 0.00,60.00,Saturday
61,13817531.214026311
1510,13817531.214026311
1857,0.0
2,7, 1, 7, 0, 7, 0.00,60.00,Saturday
61,13817531.214026311
1510,13817531.214026311
1857,0.0
2,7, 1, 7, 0, 8, 0.00,60.00,Saturday
61,10019351.214026311
1510,10019351.214026311
1857,0.0
2,7, 1, 7, 0, 9, 0.00,60.00,Saturday
61,9373963.018577522
1510,9373963.018577524
1857,0.0
2,7, 1, 7, 0,10, 0.00,60.00,Saturday
61,8120261.214026311
1510,8120261.214026311
1857,0.0
2,7, 1, 7, 0,11, 0.00,60.00,Saturday
61,8120261.214026311
1510,8120261.214026311
1857,0.0
2,7, 1, 7, 0,12, 0.00,60.00,Saturday
61,8120261.214026311
1510,8120261.214026311
1857,0.0
2,7, 1, 7, 0,13, 0.00,60.00,Saturday
61,8120261.214026311
1510,8120261.214026311
1857,0.0
2,7, 1, 7, 0,14, 0.00,60.00,Saturday
61,9374105.60281125
1510,9374105.602811253
1857,0.0
2,7, 1, 7, 0,15, 0.00,60.00,Saturday
61,8120261.214026311
1510,8120261.214026311
1857,0.0
2,7, 1, 7, 0,16, 0.00,60.00,Saturday
61,8120261.214026311
1510,8120261.214026311
1857,0.0
2,7, 1, 7, 0,17, 0.00,60.00,Saturday
61,8120261.214026311
1510,8120261.214026311
1857,0.0
2,7, 1, 7, 0,18, 0.00,60.00,Saturday
61,10019351.214026311
1510,10019351.214026311
1857,0.0
2,7, 1, 7, 0,19, 0.00,60.00,Saturday
61,13817531.214026311
1510,13817531.214026311
1857,0.0
2,7, 1, 7, 0,20, 0.00,60.00,Saturday
61,15071409.973338442
1510,15071409.973338442
1857,0.0
2,7, 1, 7, 0,21, 0.00,60.00,Saturday
61,13817531.214026311
1510,13817531.214026311
1857,0.0
2,7, 1, 7, 0,22, 0.00,60.00,Saturday
61,13817531.214026311
1510,13817531.214026311
1857,0.0
2,7, 1, 7, 0,23, 0.00,60.00,Saturday
61,13817531.214026311
1510,13817531.214026311
1857,0.0
2,7, 1, 7, 0,24, 0.00,60.00,Saturday
61,13817531.214026311
1510,13817531.214026311
1857,0.0
2,8, 1, 8, 0, 1, 0.00,60.00,Sunday
61,15071484.8817118
1510,15071484.8817118
1857,0.0
2,8, 1, 8, 0, 2, 0.00,60.00,Sunday
61,13817531.214026311
1510,13817531.214026311
1857,0.0
2,8, 1, 8, 0, 3, 0.00,60.00,Sunday
61,13817531.214026311
1510,13817531.214026311
1857,0.0
2,8, 1, 8, 0, 4, 0.00,60.00,Sunday
61,13817531.214026311
1510,13817531.214026311
1857,0.0
2,8, 1, 8, 0, 5, 0.00,60.00,Sunday
61,13817531.214026311
1510,13817531.214026311
1857,0.0
2,8, 1, 8, 0, 6, 0.00,60.00,Sunday
61,13817531.214026311
1510,13817531.214026311
1857,0.0
2,8, 1, 8, 0, 7, 0.00,60.00,Sunday
61,15071610.661538785
1510,15071610.661538785
1857,0.0
2,8, 1, 8, 0, 8, 0.00,60.00,Sunday
61,10019351.214026311
1510,10019351.214026311
1857,0.0
2,8, 1, 8, 0, 9, 0.00,60.00,Sunday
61,8120261.214026311
1510,8120261.214026311
1857,0.0
2,8, 1, 8, 0,10, 0.00,60.00,Sunday
61,8120261.214026311
1510,8120261.214026311
1857,0.0
2,8, 1, 8, 0,11, 0.00,60.00,Sunday
61,8120261.214026311
1510,8120261.214026311
1857,0.0
2,8, 1, 8, 0,12, 0.00,60.00,Sunday
61,9374149.879733244
1510,9374149.879733244
1857,0.0
2,8, 1, 8, 0,13, 0.00,60.00,Sunday
61,8120261.214026311
1510,8120261.214026311
1857,0.0
2,8, 1, 8, 0,14, 0.00,60.00,Sunday
61,8120261.214026311
1510,8120261.214026311
1857,0.0
2,8, 1, 8, 0,15, 0.00,60.00,Sunday
61,8120261.214026311
1510,8120261.214026311
1857,0.0
2,8, 1, 8, 0,16, 0.00,60.00,Sunday
61,8120261.214026311
1510,8120261.214026311
1857,0.0
2,8, 1, 8, 0,17, 0.00,60.00,Sunday
61,9374395.793015061
1510,9374395.793015061
1857,0.0
2,8, 1, 8, 0,18, 0.00,60.00,Sunday
61,10019351.214026311
1510,10019351.214026311
1857,0.0
2,8, 1, 8, 0,19, 0.00,60.00,Sunday
61,13817531.214026311
1510,13817531.214026311
1857,0.0
2,8, 1, 8, 0,20, 0.00,60.00,Sunday
61,14717531.214026311
1510,14717531.214026311
1857,0.0
2,8, 1, 8, 0,21, 0.00,60.00,Sunday
61,14717531.214026311
1510,14717531.214026311
1857,0.0
2,8, 1, 8, 0,22, 0.00,60.00,Sunday
61,15971761.429527512
1510,15971761.42952751
1857,0.0
2,8, 1, 8, 0,23, 0.00,60.00,Sunday
61,14717531.214026311
1510,14717531.214026311
1857,0.0
2,8, 1, 8, 0,24, 0.00,60.00,Sunday
61,14717531.214026311
1510,14717531.214026311
1857,0.0
2,9, 1, 9, 0, 1, 0.00,60.00,Monday
61,18461127.7094693
1510,18461127.7094693
1857,0.0
2,9, 1, 9, 0, 2, 0.00,60.00,Monday
61,18461127.7094693
1510,18461127.7094693
1857,0.0
2,9, 1, 9, 0, 3, 0.00,60.00,Monday
61,18461127.7094693
1510,18461127.7094693
1857,0.0
2,9, 1, 9, 0, 4, 0.00,60.00,Monday
61,19715385.116237286
1510,19715385.116237286
1857,0.0
2,9, 1, 9, 0, 5, 0.00,60.00,Monday
61,18461127.7094693
1510,18461127.7094693
1857,0.0
2,9, 1, 9, 0, 6, 0.00,60.00,Monday
61,19451497.152708184
1510,19451497.152708184
1857,0.0
2,9, 1, 9, 0, 7, 0.00,60.00,Monday
61,47765708.80269911
1510,47765708.80269911
1857,4280248.844025625
2,9, 1, 9, 0, 8, 0.00,60.00,Monday
61,48211758.16306295
1510,48211758.163062945
1857,84402.16163703417
2,9, 1, 9, 0, 9, 0.00,60.00,Monday
61,46498970.27669211
1510,46498970.2766921
1857,0.0
2,9, 1, 9, 0,10, 0.00,60.00,Monday
61,43343549.89008144
1510,43343549.89008144
1857,0.0
2,9, 1, 9, 0,11, 0.00,60.00,Monday
61,43142529.06285984
1510,43142529.06285984
1857,0.0
2,9, 1, 9, 0,12, 0.00,60.00,Monday
61,41939672.39866481
1510,41939672.3986648
1857,0.0
2,9, 1, 9, 0,13, 0.00,60.00,Monday
61,40002263.35160659
1510,40002263.3516066
1857,0.0
2,9, 1, 9, 0,14, 0.00,60.00,Monday
61,43662871.80548089
1510,43662871.80548089
1857,0.0
2,9, 1, 9, 0,15, 0.00,60.00,Monday
61,43497669.6823924
1510,43497669.68239239
1857,0.0
2,9, 1, 9, 0,16, 0.00,60.00,Monday
61,45136656.671122536
1510,45136656.671122536
1857,0.0
2,9, 1, 9, 0,17, 0.00,60.00,Monday
61,43535713.5357628
1510,43535713.5357628
1857,0.0
2,9, 1, 9, 0,18, 0.00,60.00,Monday
61,31243441.85068003
1510,31243441.85068003
1857,0.0
2,9, 1, 9, 0,19, 0.00,60.00,Monday
61,27948612.57915076
1510,27948612.579150762
1857,0.0
2,9, 1, 9, 0,20, 0.00,60.00,Monday
61,18571304.54158304
1510,18571304.54158304
1857,0.0
2,9, 1, 9, 0,21, 0.00,60.00,Monday
61,17863792.800131813
1510,17863792.80013181
1857,0.0
2,9, 1, 9, 0,22, 0.00,60.00,Monday
61,16590565.655100973
1510,16590565.655100973
1857,0.0
2,9, 1, 9, 0,23, 0.00,60.00,Monday
61,16061807.034600995
1510,16061807.034600994
1857,0.0
2,9, 1, 9, 0,24, 0.00,60.00,Monday
61,13817531.214026311
1510,13817531.214026311
1857,0.0
2,10, 1,10, 0, 1, 0.00,60.00,Tuesday
61,17561127.7094693
1510,17561127.7094693
1857,0.0
2,10, 1,10, 0, 2, 0.00,60.00,Tuesday
61,17561127.7094693
1510,17561127.7094693
1857,0.0
2,10, 1,10, 0, 3, 0.00,60.00,Tuesday
61,17561127.7094693
1510,17561127.7094693
1857,0.0
2,10, 1,10, 0, 4, 0.00,60.00,Tuesday
61,17561127.7094693
1510,17561127.7094693
1857,0.0
2,10, 1,10, 0, 5, 0.00,60.00,Tuesday
61,18815310.09652115
1510,18815310.09652115
1857,0.0
2,10, 1,10, 0, 6, 0.00,60.00,Tuesday
61,18551497.152708184
1510,18551497.152708184
1857,0.0
2,10, 1,10, 0, 7, 0.00,60.00,Tuesday
61,27717334.84342448
1510,27717334.843424484
1857,0.0
2,10, 1,10, 0, 8, 0.00,60.00,Tuesday
61,29441455.311916072
1510,29441455.31191608
1857,0.0
2,10, 1,10, 0, 9, 0.00,60.00,Tuesday
61,41507432.528395265
1510,41507432.528395265
1857,0.0
2,10, 1,10, 0,10, 0.00,60.00,Tuesday
61,44035540.84139456
1510,44035540.84139456
1857,0.0
2,10, 1,10, 0,11, 0.00,60.00,Tuesday
61,47107795.63011197
1510,47107795.630111955
1857,0.0
2,10, 1,10, 0,12, 0.00,60.00,Tuesday
61,46850519.55373244
1510,46850519.553732425
1857,0.0
2,10, 1,10, 0,13, 0.00,60.00,Tuesday
61,44626915.03905246
1510,44626915.03905246
1857,0.0
2,10, 1,10, 0,14, 0.00,60.00,Tuesday
61,49650266.23051746
1510,49650266.23051746
1857,0.0
2,10, 1,10, 0,15, 0.00,60.00,Tuesday
61,48832024.58256642
1510,48832024.58256642
1857,0.0
2,10, 1,10, 0,16, 0.00,60.00,Tuesday
61,49169764.79303375
1510,49169764.79303374
1857,0.0
2,10, 1,10, 0,17, 0.00,60.00,Tuesday
61,49609797.109677956
1510,49609797.10967795
1857,0.0
2,10, 1,10, 0,18, 0.00,60.00,Tuesday
61,32725832.05106323
1510,32725832.051063225
1857,0.0
2,10, 1,10, 0,19, 0.00,60.00,Tuesday
61,27527208.457183547
1510,27527208.457183555
1857,0.0
2,10, 1,10, 0,20, 0.00,60.00,Tuesday
61,18571304.54158304
1510,18571304.54158304
1857,0.0
2,10, 1,10, 0,21, 0.00,60.00,Tuesday
61,17863644.960368205
1510,17863644.9603682
1857,0.0
2,10, 1,10, 0,22, 0.00,60.00,Tuesday
61,16590565.655100973
1510,16590565.655100973
1857,0.0
2,10, 1,10, 0,23, 0.00,60.00,Tuesday
61,14807900.657265197
1510,14807900.657265196
1857,0.0
2,10, 1,10, 0,24, 0.00,60.00,Tuesday
61,13817531.214026311
1510,13817531.214026311
1857,0.0
2,11, 1,11, 0, 1, 0.00,60.00,Wednesday
61,18815171.59139894
1510,18815171.59139894
1857,0.0
2,11, 1,11, 0, 2, 0.00,60.00,Wednesday
61,17561127.7094693
1510,17561127.7094693
1857,0.0
2,11, 1,11, 0, 3, 0.00,60.00,Wednesday
61,17561127.7094693
1510,17561127.7094693
1857,0.0
2,11, 1,11, 0, 4, 0.00,60.00,Wednesday
61,17561127.7094693
1510,17561127.7094693
1857,0.0
2,11, 1,11, 0, 5, 0.00,60.00,Wednesday
61,17561127.7094693
1510,17561127.7094693
1857,0.0
2,11, 1,11, 0, 6, 0.00,60.00,Wednesday
61,19805557.706580404
1510,19805557.706580404
1857,0.0
2,11, 1,11, 0, 7, 0.00,60.00,Wednesday
61,27529884.626880288
1510,27529884.62688029
1857,0.0
2,11, 1,11, 0, 8, 0.00,60.00,Wednesday
61,29282232.048259072
1510,29282232.04825908
1857,0.0
2,11, 1,11, 0, 9, 0.00,60.00,Wednesday
61,42658267.67942559
1510,42658267.67942559
1857,0.0
2,11, 1,11, 0,10, 0.00,60.00,Wednesday
61,42496477.40561757
1510,42496477.40561757
1857,0.0
2,11, 1,11, 0,11, 0.00,60.00,Wednesday
61,44423260.229853235
1510,44423260.229853235
1857,0.0
2,11, 1,11, 0,12, 0.00,60.00,Wednesday
61,47001970.826412976
1510,47001970.82641297
1857,0.0
2,11, 1,11, 0,13, 0.00,60.00,Wednesday
61,43152849.43259401
1510,43152849.43259401
1857,0.0
2,11, 1,11, 0,14, 0.00,60.00,Wednesday
61,48584768.61904058
1510,48584768.61904058
1857,0.0
2,11, 1,11, 0,15, 0.00,60.00,Wednesday
61,48541768.42156603
1510,48541768.42156603
1857,0.0
2,11, 1,11, 0,16, 0.00,60.00,Wednesday
61,48056471.13796296
1510,48056471.13796295
1857,0.0
2,11, 1,11, 0,17, 0.00,60.00,Wednesday
61,48383983.44456907
1510,48383983.444569066
1857,0.0
2,11, 1,11, 0,18, 0.00,60.00,Wednesday
61,31900858.324113015
1510,31900858.324113015
1857,0.0
2,11, 1,11, 0,19, 0.00,60.00,Wednesday
61,27527141.33496811
1510,27527141.33496811
1857,0.0
2,11, 1,11, 0,20, 0.00,60.00,Wednesday
61,19837804.074951623
1510,19837804.074951623
1857,0.0
2,11, 1,11, 0,21, 0.00,60.00,Wednesday
61,16590565.655108327
1510,16590565.655108325
1857,0.0
2,11, 1,11, 0,22, 0.00,60.00,Wednesday
61,17850711.20816874
1510,17850711.20816874
1857,0.0
2,11, 1,11, 0,23, 0.00,60.00,Wednesday
61,14807900.657265197
1510,14807900.657265196
1857,0.0
2,11, 1,11, 0,24, 0.00,60.00,Wednesday
61,13817531.214026311
1510,13817531.214026311
1857,0.0
2,12, 1,12, 0, 1, 0.00,60.00,Thursday
61,17561127.7094693
1510,17561127.7094693
1857,0.0
2,12, 1,12, 0, 2, 0.00,60.00,Thursday
61,18814788.213363376
1510,18814788.21336338
1857,0.0
2,12, 1,12, 0, 3, 0.00,60.00,Thursday
61,17561127.7094693
1510,17561127.7094693
1857,0.0
2,12, 1,12, 0, 4, 0.00,60.00,Thursday
61,17561127.7094693
1510,17561127.7094693
1857,0.0
2,12, 1,12, 0, 5, 0.00,60.00,Thursday
61,17561127.7094693
1510,17561127.7094693
1857,0.0
2,12, 1,12, 0, 6, 0.00,60.00,Thursday
61,18551497.152708184
1510,18551497.152708184
1857,0.0
2,12, 1,12, 0, 7, 0.00,60.00,Thursday
61,26606935.457690682
1510,26606935.457690682
1857,0.0
2,12, 1,12, 0, 8, 0.00,60.00,Thursday
61,27525894.49675718
1510,27525894.49675718
1857,0.0
2,12, 1,12, 0, 9, 0.00,60.00,Thursday
61,42367364.35945981
1510,42367364.3594598
1857,0.0
2,12, 1,12, 0,10, 0.00,60.00,Thursday
61,44838125.506470084
1510,44838125.506470084
1857,0.0
2,12, 1,12, 0,11, 0.00,60.00,Thursday
61,46061450.538965486
1510,46061450.53896548
1857,0.0
2,12, 1,12, 0,12, 0.00,60.00,Thursday
61,48031903.948415905
1510,48031903.948415905
1857,0.0
2,12, 1,12, 0,13, 0.00,60.00,Thursday
61,43497004.857857175
1510,43497004.85785718
1857,0.0
2,12, 1,12, 0,14, 0.00,60.00,Thursday
61,48227614.48147083
1510,48227614.48147083
1857,0.0
2,12, 1,12, 0,15, 0.00,60.00,Thursday
61,50177584.16004889
1510,50177584.16004889
1857,0.0
2,12, 1,12, 0,16, 0.00,60.00,Thursday
61,48784883.99069272
1510,48784883.99069272
1857,0.0
2,12, 1,12, 0,17, 0.00,60.00,Thursday
61,47756427.916507885
1510,47756427.916507885
1857,0.0
2,12, 1,12, 0,18, 0.00,60.00,Thursday
61,32797271.529501423
1510,32797271.529501423
1857,0.0
2,12, 1,12, 0,19, 0.00,60.00,Thursday
61,27527111.576230362
1510,27527111.576230362
1857,0.0
2,12, 1,12, 0,20, 0.00,60.00,Thursday
61,18571304.54158304
1510,18571304.54158304
1857,0.0
2,12, 1,12, 0,21, 0.00,60.00,Thursday
61,17863605.87501786
1510,17863605.87501786
1857,0.0
2,12, 1,12, 0,22, 0.00,60.00,Thursday
61,16590565.655100973
1510,16590565.655100973
1857,0.0
2,12, 1,12, 0,23, 0.00,60.00,Thursday
61,16061780.821944546
1510,16061780.821944546
1857,0.0
2,12, 1,12, 0,24, 0.00,60.00,Thursday
61,13817531.214026311
1510,13817531.214026311
1857,0.0
2,13, 1,13, 0, 1, 0.00,60.00,Friday
61,17561127.7094693
1510,17561127.7094693
1857,0.0
2,13, 1,13, 0, 2, 0.00,60.00,Friday
61,17561127.7094693
1510,17561127.7094693
1857,0.0
2,13, 1,13, 0, 3, 0.00,60.00,Friday
61,17561127.7094693
1510,17561127.7094693
1857,0.0
2,13, 1,13, 0, 4, 0.00,60.00,Friday
61,18814800.121890467
1510,18814800.121890467
1857,0.0
2,13, 1,13, 0, 5, 0.00,60.00,Friday
61,17561127.7094693
1510,17561127.7094693
1857,0.0
2,13, 1,13, 0, 6, 0.00,60.00,Friday
61,18551497.152708184
1510,18551497.152708184
1857,0.0
2,13, 1,13, 0, 7, 0.00,60.00,Friday
61,26928216.475163464
1510,26928216.475163464
1857,0.0
2,13, 1,13, 0, 8, 0.00,60.00,Friday
61,29184128.018405378
1510,29184128.018405378
1857,0.0
2,13, 1,13, 0, 9, 0.00,60.00,Friday
61,41757532.56875377
1510,41757532.56875377
1857,0.0
2,13, 1,13, 0,10, 0.00,60.00,Friday
61,42551280.57423511
1510,42551280.57423511
1857,0.0
2,13, 1,13, 0,11, 0.00,60.00,Friday
61,45593069.891431496
1510,45593069.891431496
1857,0.0
2,13, 1,13, 0,12, 0.00,60.00,Friday
61,45680028.57736359
1510,45680028.57736359
1857,0.0
2,13, 1,13, 0,13, 0.00,60.00,Friday
61,43144629.53672514
1510,43144629.53672514
1857,0.0
2,13, 1,13, 0,14, 0.00,60.00,Friday
61,49247765.15369538
1510,49247765.15369538
1857,0.0
2,13, 1,13, 0,15, 0.00,60.00,Friday
61,48741991.36714155
1510,48741991.367141545
1857,0.0
2,13, 1,13, 0,16, 0.00,60.00,Friday
61,48890428.750183165
1510,48890428.75018315
1857,0.0
2,13, 1,13, 0,17, 0.00,60.00,Friday
61,49551489.61296703
1510,49551489.61296704
1857,0.0
2,13, 1,13, 0,18, 0.00,60.00,Friday
61,32081470.662675757
1510,32081470.662675764
1857,0.0
2,13, 1,13, 0,19, 0.00,60.00,Friday
61,27526875.596782304
1510,27526875.59678231
1857,0.0
2,13, 1,13, 0,20, 0.00,60.00,Friday
61,18571304.54158304
1510,18571304.541583035
1857,0.0
2,13, 1,13, 0,21, 0.00,60.00,Friday
61,17863475.34029174
1510,17863475.34029174
1857,0.0
2,13, 1,13, 0,22, 0.00,60.00,Friday
61,16590565.655100973
1510,16590565.655100973
1857,0.0
2,13, 1,13, 0,23, 0.00,60.00,Friday
61,14807900.657265197
1510,14807900.657265196
1857,0.0
2,13, 1,13, 0,24, 0.00,60.00,Friday
61,15071447.19072817
1510,15071447.19072817
1857,0.0
2,14, 1,14, 0, 1, 0.00,60.00,Saturday
61,13817531.214026311
1510,13817531.214026311
1857,0.0
2,14, 1,14, 0, 2, 0.00,60.00,Saturday
61,13817531.214026311
1510,13817531.214026311
1857,0.0
2,14, 1,14, 0, 3, 0.00,60.00,Saturday
61,13817531.214026311
1510,13817531.214026311
1857,0.0
2,14, 1,14, 0, 4, 0.00,60.00,Saturday
61,13817531.214026311
1510,13817531.214026311
1857,0.0
2,14, 1,14, 0, 5, 0.00,60.00,Saturday
61,13817531.214026311
1510,13817531.214026311
1857,0.0
2,14, 1,14, 0, 6, 0.00,60.00,Saturday
61,15071283.237272399
1510,15071283.237272399
1857,0.0
2,14, 1,14, 0, 7, 0.00,60.00,Saturday
61,13817531.214026311
1510,13817531.214026311
1857,0.0
2,14, 1,14, 0, 8, 0.00,60.00,Saturday
61,10019351.214026311
1510,10019351.214026311
1857,0.0
2,14, 1,14, 0, 9, 0.00,60.00,Saturday
61,8120261.214026311
1510,8120261.214026311
1857,0.0
2,14, 1,14, 0,10, 0.00,60.00,Saturday
61,8120261.214026311
1510,8120261.214026311
1857,0.0
2,14, 1,14, 0,11, 0.00,60.00,Saturday
61,9374271.475916589
1510,9374271.475916587
1857,0.0
2,14, 1,14, 0,12, 0.00,60.00,Saturday
61,8120261.214026311
1510,8120261.214026311
1857,0.0